# vtk DataFile Version 3.0
Vector example
ASCII
DATASET STRUCTURED_GRID
DIMENSIONS 2 3 1
POINTS  6  float
	0.0	-0.0	0.0
	1.0	-0.0	0.0
	0.0	-0.3333333333333333	0.0
	1.0	-0.3333333333333333	0.0
	0.0	-0.6666666666666666	0.0
	1.0	-0.6666666666666666	0.0
POINT_DATA 	6 
 
VECTORS IE float

		0.0		0		0
		0.0		0		0
		2.842170943040401e-14		-0.0002498562499959477		0
		0.0		-0.00024985625001015853		0
		0.0		-0.0002498562499898393		0
		0.0		-0.0002498562499898393		0