# vtk DataFile Version 3.0
Vector example
ASCII
DATASET STRUCTURED_GRID
DIMENSIONS 2 5 1
POINTS  10  float
	0.5	-0.0	0.0
	1.5	-0.0	0.0
	0.0	-0.2	0.0
	1.0	-0.2	0.0
	0.5	-0.4	0.0
	1.5	-0.4	0.0
	0.0	-0.6	0.0
	1.0	-0.6	0.0
	0.5	-0.8	0.0
	1.5	-0.8	0.0
POINT_DATA 	10 
 
VECTORS IN float

		0.0		0		0
		0.0		0		0
		0		-0.049971249999999835		0
		0		-0.04997124999999983		0
		0.0		0		0
		0.0		0		0
		0		-0.04997124999999983		0
		0		-0.04997124999999983		0
		0.0		0		0
		0.0		0		0