# vtk DataFile Version 3.0
Vector example
ASCII
DATASET STRUCTURED_GRID
DIMENSIONS 2 3 1
POINTS  6  float
	0.0	-0.0	0.0
	1.0	-0.0	0.0
	0.0	-0.3333333333333333	0.0
	1.0	-0.3333333333333333	0.0
	0.0	-0.6666666666666666	0.0
	1.0	-0.6666666666666666	0.0
POINT_DATA 	6 
 
VECTORS IN float

		-0.0		0		0
		-0.0		0		0
		-0.0		-0.049971249999999835		0
		-0.0		-0.04997124999999983		0
		-0.0		-0.04997124999999983		0
		-0.0		-0.04997124999999983		0