# vtk DataFile Version 3.0
Vector example
ASCII
DATASET STRUCTURED_GRID
DIMENSIONS 2 5 1
POINTS  10  float
	0.5	-0.0	0.0
	1.5	-0.0	0.0
	0.0	-0.2	0.0
	1.0	-0.2	0.0
	0.5	-0.4	0.0
	1.5	-0.4	0.0
	0.0	-0.6	0.0
	1.0	-0.6	0.0
	0.5	-0.8	0.0
	1.5	-0.8	0.0
POINT_DATA 	10 
 
VECTORS IQ float

		0.0		0		0
		0.0		0		0
		0		0.00012492812500405106		0
		0		0.00012492812498984015		0
		2.842170943040401e-14		0		0
		0.0		0		0
		0		-0.00012492812498983972		0
		0		-0.00012492812498983972		0
		0.0		0		0
		0.0		0		0