# vtk DataFile Version 3.0
Vector example
ASCII
DATASET STRUCTURED_GRID
DIMENSIONS 2 5 1
POINTS  10  float
	0.5	-0.0	0.0
	1.5	-0.0	0.0
	0.0	-0.2	0.0
	1.0	-0.2	0.0
	0.5	-0.4	0.0
	1.5	-0.4	0.0
	0.0	-0.6	0.0
	1.0	-0.6	0.0
	0.5	-0.8	0.0
	1.5	-0.8	0.0
POINT_DATA 	10 
 
VECTORS Is float

		0.0		0		0
		0.0		0		0
		0		4.164370544984617e-07		0
		0		4.164370544510909e-07		0
		9.474356850685866e-17		0		0
		0.0		0		0
		0		-4.164370544510894e-07		0
		0		-4.164370544510894e-07		0
		0.0		0		0
		0.0		0		0