# vtk DataFile Version 3.0
Vector example
ASCII
DATASET STRUCTURED_GRID
DIMENSIONS 2 3 1
POINTS  6  float
	0.0	-0.0	0.0
	1.0	-0.0	0.0
	0.0	-0.3333333333333333	0.0
	1.0	-0.3333333333333333	0.0
	0.0	-0.6666666666666666	0.0
	1.0	-0.6666666666666666	0.0
POINT_DATA 	6 
 
VECTORS Is float

		0.0		0		0
		0.0		0		0
		9.474356850685866e-17		4.164370544984617e-07		0
		0.0		4.164370544510909e-07		0
		0.0		-4.164370544510894e-07		0
		0.0		-4.164370544510894e-07		0