# vtk DataFile Version 3.0
Cube example
ASCII
DATASET STRUCTURED_GRID
DIMENSIONS 2 3 1
POINTS  6  float
	0.0	0.0	0.0
	1.0	0.0	0.0
	0.0	-0.6666666666666666	0.0
	1.0	-0.6666666666666666	0.0
	0.0	-1.3333333333333333	0.0
	1.0	-1.3333333333333333	0.0
POINT_DATA 	6 
 
SCALARS Pot.(V) float
LOOKUP_TABLE default
	0.01
	0.01
	0.005
	0.005
	0.0
	0.0